file 227513220 1345650484                                       
version 2
run Donet_Homo_oneRouter_Network-0-20120822-17:42:47-14886
attr configname Donet_Homo_oneRouter_Network
attr datetime 20120822-17:42:47
attr experiment Donet_Homo_oneRouter_Network
attr inifile /nix/workspace/omnet422-inet118/so/simulations/DonetNetworkConfig.ini
attr iterationvars $0=100
attr iterationvars2 "$0=100, $repetition=0"
attr measurement $0=100
attr network Donet_Homo_oneRouter_Network
attr processid 14886
attr repetition 0
attr replication #0
attr resultdir results
attr runnumber 0
attr seedset 0

vector 1  Donet_Homo_oneRouter_Network.churnModerator  arrivalTime:vector  ETV
attr source  arrivalTime
attr title  "Discrete arrival times, vector"
vector 3  Donet_Homo_oneRouter_Network.globalStatistic  MeshJoin:vector  ETV
attr source  Signal_MeshJoin
vector 72  Donet_Homo_oneRouter_Network.peerNode[32].ppp[0].queue  "queue length"  ETV
vector 6  Donet_Homo_oneRouter_Network.sourceNode.ppp[0].queue  "queue length"  ETV
vector 38  Donet_Homo_oneRouter_Network.peerNode[15].ppp[0].queue  "queue length"  ETV
vector 240  Donet_Homo_oneRouter_Network.router.ppp[16].queue  "queue length"  ETV
vector 144  Donet_Homo_oneRouter_Network.peerNode[68].ppp[0].queue  "queue length"  ETV
vector 180  Donet_Homo_oneRouter_Network.peerNode[86].ppp[0].queue  "queue length"  ETV
vector 382  Donet_Homo_oneRouter_Network.router.ppp[87].queue  "queue length"  ETV
vector 0  Donet_Homo_oneRouter_Network.activePeerTable  aptSize:vector  ETV
attr source  Signal_Size
attr title  "Active Peer Table Size, vector"
vector 64  Donet_Homo_oneRouter_Network.peerNode[28].ppp[0].queue  "queue length"  ETV
vector 266  Donet_Homo_oneRouter_Network.router.ppp[29].queue  "queue length"  ETV
vector 5  Donet_Homo_oneRouter_Network.sourceNode.peerApp.chunkGenerator  chunkSeqNum:vector  ETV
vector 274  Donet_Homo_oneRouter_Network.router.ppp[33].queue  "queue length"  ETV
vector 68  Donet_Homo_oneRouter_Network.peerNode[30].ppp[0].queue  "queue length"  ETV
vector 178  Donet_Homo_oneRouter_Network.peerNode[85].ppp[0].queue  "queue length"  ETV
vector 380  Donet_Homo_oneRouter_Network.router.ppp[86].queue  "queue length"  ETV
vector 122  Donet_Homo_oneRouter_Network.peerNode[57].ppp[0].queue  "queue length"  ETV
vector 104  Donet_Homo_oneRouter_Network.peerNode[48].ppp[0].queue  "queue length"  ETV
vector 324  Donet_Homo_oneRouter_Network.router.ppp[58].queue  "queue length"  ETV
vector 196  Donet_Homo_oneRouter_Network.peerNode[94].ppp[0].queue  "queue length"  ETV
vector 142  Donet_Homo_oneRouter_Network.peerNode[67].ppp[0].queue  "queue length"  ETV
vector 344  Donet_Homo_oneRouter_Network.router.ppp[68].queue  "queue length"  ETV
vector 306  Donet_Homo_oneRouter_Network.router.ppp[49].queue  "queue length"  ETV
vector 82  Donet_Homo_oneRouter_Network.peerNode[37].ppp[0].queue  "queue length"  ETV
vector 112  Donet_Homo_oneRouter_Network.peerNode[52].ppp[0].queue  "queue length"  ETV
vector 314  Donet_Homo_oneRouter_Network.router.ppp[53].queue  "queue length"  ETV
vector 150  Donet_Homo_oneRouter_Network.peerNode[71].ppp[0].queue  "queue length"  ETV
vector 7  Donet_Homo_oneRouter_Network.sourceNode.ppp[0].queue  drops  ETV
vector 190  Donet_Homo_oneRouter_Network.peerNode[91].ppp[0].queue  "queue length"  ETV
vector 130  Donet_Homo_oneRouter_Network.peerNode[61].ppp[0].queue  "queue length"  ETV
vector 192  Donet_Homo_oneRouter_Network.peerNode[92].ppp[0].queue  "queue length"  ETV
vector 138  Donet_Homo_oneRouter_Network.peerNode[65].ppp[0].queue  "queue length"  ETV
vector 154  Donet_Homo_oneRouter_Network.peerNode[73].ppp[0].queue  "queue length"  ETV
vector 128  Donet_Homo_oneRouter_Network.peerNode[60].ppp[0].queue  "queue length"  ETV
vector 143  Donet_Homo_oneRouter_Network.peerNode[67].ppp[0].queue  drops  ETV
vector 42  Donet_Homo_oneRouter_Network.peerNode[17].ppp[0].queue  "queue length"  ETV
vector 34  Donet_Homo_oneRouter_Network.peerNode[13].ppp[0].queue  "queue length"  ETV
vector 200  Donet_Homo_oneRouter_Network.peerNode[96].ppp[0].queue  "queue length"  ETV
vector 236  Donet_Homo_oneRouter_Network.router.ppp[14].queue  "queue length"  ETV
vector 356  Donet_Homo_oneRouter_Network.router.ppp[74].queue  "queue length"  ETV
vector 146  Donet_Homo_oneRouter_Network.peerNode[69].ppp[0].queue  "queue length"  ETV
vector 330  Donet_Homo_oneRouter_Network.router.ppp[61].queue  "queue length"  ETV
vector 206  Donet_Homo_oneRouter_Network.peerNode[99].ppp[0].queue  "queue length"  ETV
vector 408  Donet_Homo_oneRouter_Network.router.ppp[100].queue  "queue length"  ETV
vector 66  Donet_Homo_oneRouter_Network.peerNode[29].ppp[0].queue  "queue length"  ETV
vector 194  Donet_Homo_oneRouter_Network.peerNode[93].ppp[0].queue  "queue length"  ETV
vector 396  Donet_Homo_oneRouter_Network.router.ppp[94].queue  "queue length"  ETV
vector 35  Donet_Homo_oneRouter_Network.peerNode[13].ppp[0].queue  drops  ETV
vector 392  Donet_Homo_oneRouter_Network.router.ppp[92].queue  "queue length"  ETV
vector 168  Donet_Homo_oneRouter_Network.peerNode[80].ppp[0].queue  "queue length"  ETV
vector 204  Donet_Homo_oneRouter_Network.peerNode[98].ppp[0].queue  "queue length"  ETV
vector 113  Donet_Homo_oneRouter_Network.peerNode[52].ppp[0].queue  drops  ETV
vector 155  Donet_Homo_oneRouter_Network.peerNode[73].ppp[0].queue  drops  ETV
vector 244  Donet_Homo_oneRouter_Network.router.ppp[18].queue  "queue length"  ETV
vector 406  Donet_Homo_oneRouter_Network.router.ppp[99].queue  "queue length"  ETV
vector 370  Donet_Homo_oneRouter_Network.router.ppp[81].queue  "queue length"  ETV
vector 123  Donet_Homo_oneRouter_Network.peerNode[57].ppp[0].queue  drops  ETV
vector 74  Donet_Homo_oneRouter_Network.peerNode[33].ppp[0].queue  "queue length"  ETV
vector 44  Donet_Homo_oneRouter_Network.peerNode[18].ppp[0].queue  "queue length"  ETV
vector 268  Donet_Homo_oneRouter_Network.router.ppp[30].queue  "queue length"  ETV
vector 237  Donet_Homo_oneRouter_Network.router.ppp[14].queue  drops  ETV
vector 129  Donet_Homo_oneRouter_Network.peerNode[60].ppp[0].queue  drops  ETV
vector 30  Donet_Homo_oneRouter_Network.peerNode[11].ppp[0].queue  "queue length"  ETV
vector 269  Donet_Homo_oneRouter_Network.router.ppp[30].queue  drops  ETV
vector 158  Donet_Homo_oneRouter_Network.peerNode[75].ppp[0].queue  "queue length"  ETV
vector 58  Donet_Homo_oneRouter_Network.peerNode[25].ppp[0].queue  "queue length"  ETV
vector 124  Donet_Homo_oneRouter_Network.peerNode[58].ppp[0].queue  "queue length"  ETV
vector 24  Donet_Homo_oneRouter_Network.peerNode[8].ppp[0].queue  "queue length"  ETV
vector 246  Donet_Homo_oneRouter_Network.router.ppp[19].queue  "queue length"  ETV
vector 352  Donet_Homo_oneRouter_Network.router.ppp[72].queue  "queue length"  ETV
vector 172  Donet_Homo_oneRouter_Network.peerNode[82].ppp[0].queue  "queue length"  ETV
vector 32  Donet_Homo_oneRouter_Network.peerNode[12].ppp[0].queue  "queue length"  ETV
vector 166  Donet_Homo_oneRouter_Network.peerNode[79].ppp[0].queue  "queue length"  ETV
vector 241  Donet_Homo_oneRouter_Network.router.ppp[16].queue  drops  ETV
vector 45  Donet_Homo_oneRouter_Network.peerNode[18].ppp[0].queue  drops  ETV
vector 260  Donet_Homo_oneRouter_Network.router.ppp[26].queue  "queue length"  ETV
vector 136  Donet_Homo_oneRouter_Network.peerNode[64].ppp[0].queue  "queue length"  ETV
vector 345  Donet_Homo_oneRouter_Network.router.ppp[68].queue  drops  ETV
vector 234  Donet_Homo_oneRouter_Network.router.ppp[13].queue  "queue length"  ETV
vector 326  Donet_Homo_oneRouter_Network.router.ppp[59].queue  "queue length"  ETV
vector 67  Donet_Homo_oneRouter_Network.peerNode[29].ppp[0].queue  drops  ETV
vector 332  Donet_Homo_oneRouter_Network.router.ppp[62].queue  "queue length"  ETV
vector 96  Donet_Homo_oneRouter_Network.peerNode[44].ppp[0].queue  "queue length"  ETV
vector 126  Donet_Homo_oneRouter_Network.peerNode[59].ppp[0].queue  "queue length"  ETV
vector 90  Donet_Homo_oneRouter_Network.peerNode[41].ppp[0].queue  "queue length"  ETV
vector 46  Donet_Homo_oneRouter_Network.peerNode[19].ppp[0].queue  "queue length"  ETV
vector 169  Donet_Homo_oneRouter_Network.peerNode[80].ppp[0].queue  drops  ETV
vector 325  Donet_Homo_oneRouter_Network.router.ppp[58].queue  drops  ETV
vector 54  Donet_Homo_oneRouter_Network.peerNode[23].ppp[0].queue  "queue length"  ETV
vector 98  Donet_Homo_oneRouter_Network.peerNode[45].ppp[0].queue  "queue length"  ETV
vector 232  Donet_Homo_oneRouter_Network.router.ppp[12].queue  "queue length"  ETV
vector 292  Donet_Homo_oneRouter_Network.router.ppp[42].queue  "queue length"  ETV
vector 120  Donet_Homo_oneRouter_Network.peerNode[56].ppp[0].queue  "queue length"  ETV
vector 52  Donet_Homo_oneRouter_Network.peerNode[22].ppp[0].queue  "queue length"  ETV
vector 59  Donet_Homo_oneRouter_Network.peerNode[25].ppp[0].queue  drops  ETV
vector 205  Donet_Homo_oneRouter_Network.peerNode[98].ppp[0].queue  drops  ETV
vector 114  Donet_Homo_oneRouter_Network.peerNode[53].ppp[0].queue  "queue length"  ETV
vector 20  Donet_Homo_oneRouter_Network.peerNode[6].ppp[0].queue  "queue length"  ETV
vector 8  Donet_Homo_oneRouter_Network.peerNode[0].ppp[0].queue  "queue length"  ETV
vector 56  Donet_Homo_oneRouter_Network.peerNode[24].ppp[0].queue  "queue length"  ETV
vector 328  Donet_Homo_oneRouter_Network.router.ppp[60].queue  "queue length"  ETV
vector 140  Donet_Homo_oneRouter_Network.peerNode[66].ppp[0].queue  "queue length"  ETV
vector 91  Donet_Homo_oneRouter_Network.peerNode[41].ppp[0].queue  drops  ETV
vector 31  Donet_Homo_oneRouter_Network.peerNode[11].ppp[0].queue  drops  ETV
vector 258  Donet_Homo_oneRouter_Network.router.ppp[25].queue  "queue length"  ETV
vector 402  Donet_Homo_oneRouter_Network.router.ppp[97].queue  "queue length"  ETV
vector 210  Donet_Homo_oneRouter_Network.router.ppp[1].queue  "queue length"  ETV
vector 316  Donet_Homo_oneRouter_Network.router.ppp[54].queue  "queue length"  ETV
vector 248  Donet_Homo_oneRouter_Network.router.ppp[20].queue  "queue length"  ETV
vector 43  Donet_Homo_oneRouter_Network.peerNode[17].ppp[0].queue  drops  ETV
vector 322  Donet_Homo_oneRouter_Network.router.ppp[57].queue  "queue length"  ETV
vector 256  Donet_Homo_oneRouter_Network.router.ppp[24].queue  "queue length"  ETV
vector 357  Donet_Homo_oneRouter_Network.router.ppp[74].queue  drops  ETV
vector 342  Donet_Homo_oneRouter_Network.router.ppp[67].queue  "queue length"  ETV
vector 110  Donet_Homo_oneRouter_Network.peerNode[51].ppp[0].queue  "queue length"  ETV
vector 10  Donet_Homo_oneRouter_Network.peerNode[1].ppp[0].queue  "queue length"  ETV
vector 300  Donet_Homo_oneRouter_Network.router.ppp[46].queue  "queue length"  ETV
vector 16  Donet_Homo_oneRouter_Network.peerNode[4].ppp[0].queue  "queue length"  ETV
vector 348  Donet_Homo_oneRouter_Network.router.ppp[70].queue  "queue length"  ETV
vector 202  Donet_Homo_oneRouter_Network.peerNode[97].ppp[0].queue  "queue length"  ETV
vector 222  Donet_Homo_oneRouter_Network.router.ppp[7].queue  "queue length"  ETV
vector 212  Donet_Homo_oneRouter_Network.router.ppp[2].queue  "queue length"  ETV
vector 152  Donet_Homo_oneRouter_Network.peerNode[72].ppp[0].queue  "queue length"  ETV
vector 226  Donet_Homo_oneRouter_Network.router.ppp[9].queue  "queue length"  ETV
vector 170  Donet_Homo_oneRouter_Network.peerNode[81].ppp[0].queue  "queue length"  ETV
vector 55  Donet_Homo_oneRouter_Network.peerNode[23].ppp[0].queue  drops  ETV
vector 156  Donet_Homo_oneRouter_Network.peerNode[74].ppp[0].queue  "queue length"  ETV
vector 148  Donet_Homo_oneRouter_Network.peerNode[70].ppp[0].queue  "queue length"  ETV
vector 9  Donet_Homo_oneRouter_Network.peerNode[0].ppp[0].queue  drops  ETV
vector 26  Donet_Homo_oneRouter_Network.peerNode[9].ppp[0].queue  "queue length"  ETV
vector 108  Donet_Homo_oneRouter_Network.peerNode[50].ppp[0].queue  "queue length"  ETV
vector 33  Donet_Homo_oneRouter_Network.peerNode[12].ppp[0].queue  drops  ETV
vector 121  Donet_Homo_oneRouter_Network.peerNode[56].ppp[0].queue  drops  ETV
vector 228  Donet_Homo_oneRouter_Network.router.ppp[10].queue  "queue length"  ETV
vector 208  Donet_Homo_oneRouter_Network.router.ppp[0].queue  "queue length"  ETV
vector 372  Donet_Homo_oneRouter_Network.router.ppp[82].queue  "queue length"  ETV
vector 171  Donet_Homo_oneRouter_Network.peerNode[81].ppp[0].queue  drops  ETV
vector 28  Donet_Homo_oneRouter_Network.peerNode[10].ppp[0].queue  "queue length"  ETV
vector 70  Donet_Homo_oneRouter_Network.peerNode[31].ppp[0].queue  "queue length"  ETV
vector 186  Donet_Homo_oneRouter_Network.peerNode[89].ppp[0].queue  "queue length"  ETV
vector 358  Donet_Homo_oneRouter_Network.router.ppp[75].queue  "queue length"  ETV
vector 310  Donet_Homo_oneRouter_Network.router.ppp[51].queue  "queue length"  ETV
vector 272  Donet_Homo_oneRouter_Network.router.ppp[32].queue  "queue length"  ETV
vector 184  Donet_Homo_oneRouter_Network.peerNode[88].ppp[0].queue  "queue length"  ETV
vector 354  Donet_Homo_oneRouter_Network.router.ppp[73].queue  "queue length"  ETV
vector 188  Donet_Homo_oneRouter_Network.peerNode[90].ppp[0].queue  "queue length"  ETV
vector 230  Donet_Homo_oneRouter_Network.router.ppp[11].queue  "queue length"  ETV
vector 218  Donet_Homo_oneRouter_Network.router.ppp[5].queue  "queue length"  ETV
vector 102  Donet_Homo_oneRouter_Network.peerNode[47].ppp[0].queue  "queue length"  ETV
vector 254  Donet_Homo_oneRouter_Network.router.ppp[23].queue  "queue length"  ETV
vector 164  Donet_Homo_oneRouter_Network.peerNode[78].ppp[0].queue  "queue length"  ETV
vector 176  Donet_Homo_oneRouter_Network.peerNode[84].ppp[0].queue  "queue length"  ETV
vector 394  Donet_Homo_oneRouter_Network.router.ppp[93].queue  "queue length"  ETV
vector 12  Donet_Homo_oneRouter_Network.peerNode[2].ppp[0].queue  "queue length"  ETV
vector 386  Donet_Homo_oneRouter_Network.router.ppp[89].queue  "queue length"  ETV
vector 106  Donet_Homo_oneRouter_Network.peerNode[49].ppp[0].queue  "queue length"  ETV
vector 374  Donet_Homo_oneRouter_Network.router.ppp[83].queue  "queue length"  ETV
vector 214  Donet_Homo_oneRouter_Network.router.ppp[3].queue  "queue length"  ETV
vector 350  Donet_Homo_oneRouter_Network.router.ppp[71].queue  "queue length"  ETV
vector 115  Donet_Homo_oneRouter_Network.peerNode[53].ppp[0].queue  drops  ETV
vector 27  Donet_Homo_oneRouter_Network.peerNode[9].ppp[0].queue  drops  ETV
vector 134  Donet_Homo_oneRouter_Network.peerNode[63].ppp[0].queue  "queue length"  ETV
vector 198  Donet_Homo_oneRouter_Network.peerNode[95].ppp[0].queue  "queue length"  ETV
vector 346  Donet_Homo_oneRouter_Network.router.ppp[69].queue  "queue length"  ETV
vector 308  Donet_Homo_oneRouter_Network.router.ppp[50].queue  "queue length"  ETV
vector 29  Donet_Homo_oneRouter_Network.peerNode[10].ppp[0].queue  drops  ETV
vector 21  Donet_Homo_oneRouter_Network.peerNode[6].ppp[0].queue  drops  ETV
vector 71  Donet_Homo_oneRouter_Network.peerNode[31].ppp[0].queue  drops  ETV
vector 118  Donet_Homo_oneRouter_Network.peerNode[55].ppp[0].queue  "queue length"  ETV
vector 378  Donet_Homo_oneRouter_Network.router.ppp[85].queue  "queue length"  ETV
vector 132  Donet_Homo_oneRouter_Network.peerNode[62].ppp[0].queue  "queue length"  ETV
vector 80  Donet_Homo_oneRouter_Network.peerNode[36].ppp[0].queue  "queue length"  ETV
vector 11  Donet_Homo_oneRouter_Network.peerNode[1].ppp[0].queue  drops  ETV
vector 336  Donet_Homo_oneRouter_Network.router.ppp[64].queue  "queue length"  ETV
vector 100  Donet_Homo_oneRouter_Network.peerNode[46].ppp[0].queue  "queue length"  ETV
vector 398  Donet_Homo_oneRouter_Network.router.ppp[95].queue  "queue length"  ETV
vector 48  Donet_Homo_oneRouter_Network.peerNode[20].ppp[0].queue  "queue length"  ETV
vector 360  Donet_Homo_oneRouter_Network.router.ppp[76].queue  "queue length"  ETV
vector 92  Donet_Homo_oneRouter_Network.peerNode[42].ppp[0].queue  "queue length"  ETV
vector 94  Donet_Homo_oneRouter_Network.peerNode[43].ppp[0].queue  "queue length"  ETV
vector 157  Donet_Homo_oneRouter_Network.peerNode[74].ppp[0].queue  drops  ETV
vector 109  Donet_Homo_oneRouter_Network.peerNode[50].ppp[0].queue  drops  ETV
vector 135  Donet_Homo_oneRouter_Network.peerNode[63].ppp[0].queue  drops  ETV
vector 50  Donet_Homo_oneRouter_Network.peerNode[21].ppp[0].queue  "queue length"  ETV
vector 296  Donet_Homo_oneRouter_Network.router.ppp[44].queue  "queue length"  ETV
vector 302  Donet_Homo_oneRouter_Network.router.ppp[47].queue  "queue length"  ETV
vector 76  Donet_Homo_oneRouter_Network.peerNode[34].ppp[0].queue  "queue length"  ETV
vector 107  Donet_Homo_oneRouter_Network.peerNode[49].ppp[0].queue  drops  ETV
vector 62  Donet_Homo_oneRouter_Network.peerNode[27].ppp[0].queue  "queue length"  ETV
vector 14  Donet_Homo_oneRouter_Network.peerNode[3].ppp[0].queue  "queue length"  ETV
vector 270  Donet_Homo_oneRouter_Network.router.ppp[31].queue  "queue length"  ETV
vector 276  Donet_Homo_oneRouter_Network.router.ppp[34].queue  "queue length"  ETV
vector 13  Donet_Homo_oneRouter_Network.peerNode[2].ppp[0].queue  drops  ETV
vector 400  Donet_Homo_oneRouter_Network.router.ppp[96].queue  "queue length"  ETV
vector 320  Donet_Homo_oneRouter_Network.router.ppp[56].queue  "queue length"  ETV
vector 213  Donet_Homo_oneRouter_Network.router.ppp[2].queue  drops  ETV
vector 185  Donet_Homo_oneRouter_Network.peerNode[88].ppp[0].queue  drops  ETV
vector 22  Donet_Homo_oneRouter_Network.peerNode[7].ppp[0].queue  "queue length"  ETV
vector 149  Donet_Homo_oneRouter_Network.peerNode[70].ppp[0].queue  drops  ETV
vector 101  Donet_Homo_oneRouter_Network.peerNode[46].ppp[0].queue  drops  ETV
vector 177  Donet_Homo_oneRouter_Network.peerNode[84].ppp[0].queue  drops  ETV
vector 264  Donet_Homo_oneRouter_Network.router.ppp[28].queue  "queue length"  ETV
vector 252  Donet_Homo_oneRouter_Network.router.ppp[22].queue  "queue length"  ETV
vector 18  Donet_Homo_oneRouter_Network.peerNode[5].ppp[0].queue  "queue length"  ETV
vector 250  Donet_Homo_oneRouter_Network.router.ppp[21].queue  "queue length"  ETV
vector 84  Donet_Homo_oneRouter_Network.peerNode[38].ppp[0].queue  "queue length"  ETV
vector 86  Donet_Homo_oneRouter_Network.peerNode[39].ppp[0].queue  "queue length"  ETV
vector 36  Donet_Homo_oneRouter_Network.peerNode[14].ppp[0].queue  "queue length"  ETV
vector 216  Donet_Homo_oneRouter_Network.router.ppp[4].queue  "queue length"  ETV
vector 294  Donet_Homo_oneRouter_Network.router.ppp[43].queue  "queue length"  ETV
vector 278  Donet_Homo_oneRouter_Network.router.ppp[35].queue  "queue length"  ETV
vector 220  Donet_Homo_oneRouter_Network.router.ppp[6].queue  "queue length"  ETV
vector 174  Donet_Homo_oneRouter_Network.peerNode[83].ppp[0].queue  "queue length"  ETV
vector 224  Donet_Homo_oneRouter_Network.router.ppp[8].queue  "queue length"  ETV
vector 53  Donet_Homo_oneRouter_Network.peerNode[22].ppp[0].queue  drops  ETV
vector 238  Donet_Homo_oneRouter_Network.router.ppp[15].queue  "queue length"  ETV
vector 162  Donet_Homo_oneRouter_Network.peerNode[77].ppp[0].queue  "queue length"  ETV
vector 17  Donet_Homo_oneRouter_Network.peerNode[4].ppp[0].queue  drops  ETV
vector 288  Donet_Homo_oneRouter_Network.router.ppp[40].queue  "queue length"  ETV
vector 15  Donet_Homo_oneRouter_Network.peerNode[3].ppp[0].queue  drops  ETV
vector 60  Donet_Homo_oneRouter_Network.peerNode[26].ppp[0].queue  "queue length"  ETV
vector 160  Donet_Homo_oneRouter_Network.peerNode[76].ppp[0].queue  "queue length"  ETV
vector 116  Donet_Homo_oneRouter_Network.peerNode[54].ppp[0].queue  "queue length"  ETV
vector 286  Donet_Homo_oneRouter_Network.router.ppp[39].queue  "queue length"  ETV
vector 282  Donet_Homo_oneRouter_Network.router.ppp[37].queue  "queue length"  ETV
vector 78  Donet_Homo_oneRouter_Network.peerNode[35].ppp[0].queue  "queue length"  ETV
vector 40  Donet_Homo_oneRouter_Network.peerNode[16].ppp[0].queue  "queue length"  ETV
vector 182  Donet_Homo_oneRouter_Network.peerNode[87].ppp[0].queue  "queue length"  ETV
vector 88  Donet_Homo_oneRouter_Network.peerNode[40].ppp[0].queue  "queue length"  ETV
vector 280  Donet_Homo_oneRouter_Network.router.ppp[36].queue  "queue length"  ETV
vector 315  Donet_Homo_oneRouter_Network.router.ppp[53].queue  drops  ETV
vector 338  Donet_Homo_oneRouter_Network.router.ppp[65].queue  "queue length"  ETV
vector 262  Donet_Homo_oneRouter_Network.router.ppp[27].queue  "queue length"  ETV
vector 95  Donet_Homo_oneRouter_Network.peerNode[43].ppp[0].queue  drops  ETV
vector 85  Donet_Homo_oneRouter_Network.peerNode[38].ppp[0].queue  drops  ETV
vector 388  Donet_Homo_oneRouter_Network.router.ppp[90].queue  "queue length"  ETV
vector 304  Donet_Homo_oneRouter_Network.router.ppp[48].queue  "queue length"  ETV
vector 242  Donet_Homo_oneRouter_Network.router.ppp[17].queue  "queue length"  ETV
vector 79  Donet_Homo_oneRouter_Network.peerNode[35].ppp[0].queue  drops  ETV
vector 364  Donet_Homo_oneRouter_Network.router.ppp[78].queue  "queue length"  ETV
vector 37  Donet_Homo_oneRouter_Network.peerNode[14].ppp[0].queue  drops  ETV
vector 384  Donet_Homo_oneRouter_Network.router.ppp[88].queue  "queue length"  ETV
vector 119  Donet_Homo_oneRouter_Network.peerNode[55].ppp[0].queue  drops  ETV
vector 366  Donet_Homo_oneRouter_Network.router.ppp[79].queue  "queue length"  ETV
0	21182 7870 2551 4600396 4.422983978227 56.064300423297 279 0 99 9519 481553
1	29052 3681 104 203 1.000018789798 1.000978618342 100 0.42221389676384 49.430146954184 2696.6758315755 94367.853286524
3	32733 2653 244 3600389 1.422983978227 51.119560428337 99 1 1 99 99
5	35386 40629 3457 4636489 5 56.225 2050 0 2049 2100225 2869607425
6	76015 1812386 338 4636595 1.5 56.227443025518 64666 0 100 3591079 257414541
7	1888401 1651843 49679 4635234 11.06084355359 56.207417706367 59552 1 1 59552 59552
8	3540244 85484 811377 4636050 29.202878301303 56.218068187836 2963 0 100 208764 17448538
9	3625728 26439 1191632 3367160 33.690565928337 49.816049990333 965 1 1 965 965
10	3652167 51744 997852 4636511 31.670380091411 56.226193928337 1726 0 100 144223 12893575
11	3703911 1946117 2211224 4631379 42.592857928337 56.195399872791 67295 1 1 67295 67295
12	5650028 40764 1782174 4636384 38.906984950075 56.223527039621 1362 0 100 107621 9744253
13	5690792 94297 2742175 4608578 46.243375039621 56.140881877831 3254 1 1 3254 3254
14	5785089 31037 2715423 4635236 46.061516268963 56.207419923297 1035 0 100 79352 6685942
15	5816126 42137 3206660 4619228 49.040445581696 56.155958928337 1453 1 1 1453 1453
16	5858263 24915 1020194 4559976 31.893099741125 55.852719301303 838 0 100 32507 2065403
17	5883178 203 3172647 3264257 48.787199739675 49.335779301303 7 1 1 7 7
18	5883381 17083 3001023 4635942 47.612138089636 56.216555039621 582 0 100 24409 1593127
20	5900464 50053 810855 4635477 29.182886221449 56.208969423297 1675 0 100 100932 8193402
21	5950517 32538 2109818 4623899 41.795342428337 56.185451221449 1122 1 1 1122 1122
22	5983055 8459 2801796 4635470 46.69148616001 56.20882116001 294 0 40 3403 83275
24	5991514 26395 249291 4622823 18.919942804285 56.17351816001 906 0 60 9357 288081
26	6017909 62040 1272136 4636497 34.296631882742 56.225742539621 2092 0 100 84010 5219426
27	6079949 375 1907895 1952987 39.91444054313 40.42049254313 13 1 1 13 13
28	6080324 54059 1435357 4636250 35.816052292582 56.2217408326 1888 0 100 143532 11898980
29	6134383 12769 2073324 4499591 41.5232598326 55.641751877831 449 1 1 449 449
30	6147152 66564 188273 4635339 17.514282005283 56.207922928337 2266 0 100 56013 3270097
31	6213716 7611 871412 1028483 29.990530248892 32.023299248892 270 1 1 270 270
32	6221327 94811 324161 4635273 20.389773379217 56.20785554313 3247 0 100 270282 24459028
33	6316138 173165 1295066 4632496 34.63099554313 56.20375454313 6098 1 1 6098 6098
34	6489303 152966 76214 4636537 12.965468567504 56.226629248892 5171 0 100 429490 36681158
35	6642269 1417892 106755 4615746 14.643075928337 56.143075928337 49254 1 1 49254 49254
36	8060161 22214 3054339 4636580 48.037933081696 56.227030781454 748 0 100 39780 3123582
37	8082375 8728 4160378 4631740 53.942857781454 56.1966638326 302 1 1 302 302
38	8091103 80125 384 4545284 1.730524343348 55.747915635014 2778 0 87 56745 2605545
40	8171228 3158 3483846 4572119 50.349586593586 55.905697541074 108 0 19 624 6574
42	8174386 123719 74246 4635760 12.759193074232 56.213078005283 4182 0 100 269511 21803035
43	8298105 37579 960322 4570164 31.150768005283 55.883801026442 1300 1 1 1300 1300
44	8335684 126123 166893 4636034 16.971146374657 56.217821428337 4280 0 100 352932 30252796
45	8461807 76867 346645 4623803 20.895134428337 56.18440904313 2742 1 1 2742 2742
46	8538674 41647 590946 4559347 25.826761505999 55.845396505999 1426 0 28 9623 112969
48	8580321 1392 2378838 4553076 43.799340781454 55.802775781454 48 0 3 36 52
50	8581713 9301 2484678 4619910 44.546264662574 56.163245877831 318 0 22 1813 21371
52	8591014 25272 764039 4594161 28.500652533044 56.018147533044 858 0 100 28081 2108285
53	8616286 2088 3112244 3264872 48.341587533044 49.341587533044 72 1 1 72 72
54	8618374 89393 707155 4635998 27.707727460311 56.217695428337 2993 0 100 259637 23881929
55	8707767 205793 1110782 4605616 32.830414005999 56.099391687836 7253 1 1 7253 7253
56	8913560 52486 837540 4636140 29.494336726798 56.219496301303 1800 0 36 13912 213452
58	8966046 75347 216951 4635467 18.381288526442 56.208792928337 2565 0 100 90045 6188747
59	9041393 5357 765483 1384788 28.518504505283 35.382713526442 187 1 1 187 187
60	9046750 8244 3228807 4635906 49.135530187836 56.216054676662 282 0 21 1777 18113
62	9054994 8355 2625500 4635598 45.540617754897 56.211195923297 282 0 43 4677 120633
64	9063349 144274 2741 4636012 4.460722592102 56.217742539621 4946 0 85 141057 5711149
66	9207623 112639 100434 4556934 14.310384304985 55.828749304985 3810 0 100 215675 16054189
67	9320262 41252 469912 3875180 23.400358748892 52.417654748892 1439 1 1 1439 1439
68	9361514 28350 6005 4601756 6.057212006367 56.073163298033 1004 0 5 2500 8478
70	9389864 51892 1438732 4635885 35.849203271084 56.21541866001 1773 0 100 122969 10701859
71	9441756 67403 2110245 4624769 41.796212428337 56.19513866001 2409 1 1 2409 2409
72	9509159 78724 257 4635808 1.441825693369 56.214001092102 2742 0 83 37931 1433667
74	9587883 19922 161646 4546033 16.741124195803 55.757749195803 694 0 5 1621 5299
76	9607805 9189 2617600 4545189 45.469948939191 55.746197539621 314 0 33 2855 50241
78	9616994 20343 3420012 4635788 50.118714637954 56.213599093586 680 0 100 50106 4182376
79	9637337 18488 4031882 4571804 53.353239093586 55.899835041074 638 1 1 638 638
80	9655825 3712 2175200 4556792 42.312029041074 55.826024041074 128 0 5 222 580
82	9659537 25630 37995 4599343 10.029163318535 56.050100171636 900 0 5 2218 7490
84	9685167 18417 3025360 4552755 47.782977239675 55.797842239675 618 0 100 27029 1794761
85	9703584 493 3774593 3880208 51.947154676662 52.447154676662 17 1 1 17 17
86	9704077 5317 3042635 4581013 47.936736176662 55.942641176662 182 0 24 1143 14419
88	9709394 522 3495957 4580926 50.431125572526 55.941044428337 18 0 3 15 25
90	9709916 96035 571575 4636019 25.470465652261 56.217764801303 3208 0 100 285596 26074280
91	9805951 216014 854053 4585490 29.705390801303 55.971890652261 7453 1 1 7453 7453
92	10021965 23697 2415190 4635843 43.991128322033 56.214403322033 798 0 89 24007 1206535
94	10045662 15788 2415564 4593462 43.995830449554 56.008385449554 532 0 100 22874 1659118
95	10061450 1914 3582569 3678159 51.041885581696 51.541315581696 66 1 1 66 66
96	10063364 11242 502240 4607049 24.101624574989 56.122395831367 388 0 5 860 2758
98	10074606 51512 708031 4635498 27.736431423832 56.209234039621 1752 0 56 21880 539620
100	10126118 37847 2361439 4619760 43.636659377831 56.160214377831 1230 0 100 76199 5977739
101	10163965 14457 2881328 3707987 47.049347162574 51.639794377831 492 1 1 492 492
102	10178422 4620 1615727 4571961 37.395496990333 55.903001990333 154 0 3 167 281
104	10183042 52758 9200 4550917 6.757124671636 55.776059671636 1788 0 31 9120 91190
106	10235800 56091 1814176 4636092 39.277369868585 56.218595923297 1810 0 100 131199 10876637
107	10291891 82770 2621615 4556599 45.498912949554 55.821616923297 2759 1 1 2759 2759
108	10374661 42958 1290534 4636224 34.56409042794 56.221404187836 1420 0 100 62280 4518854
109	10417619 4102 2479453 4483417 44.49901104313 55.56551542794 139 1 1 139 139
110	10421721 8984 995068 4607220 31.60634088393 56.12467588393 310 0 5 587 1659
112	10430705 149536 44266 4636299 10.55853767859 56.222606831367 4909 0 100 423695 37603287
113	10580241 2073883 129539 4618993 15.665326831367 56.154338984144 69882 1 1 69882 69882
114	12654124 51116 810503 4636505 29.172783647427 56.226128539621 1682 0 100 37507 2306589
115	12705240 1350 1907423 1952946 39.910367450075 40.420172450075 45 1 1 45 45
116	12706590 420 3247318 4124608 49.235831615511 53.753626928337 14 0 3 19 39
118	12707010 32158 2114359 4636271 41.839676438231 56.221831281454 1046 0 100 33551 2044799
119	12739168 2206 4403444 4601700 55.07346875477 56.07259875477 74 1 1 74 74
120	12741374 41686 743199 4636161 28.20067204313 56.21960704313 1404 0 100 53126 4280034
121	12783060 12312 1324235 1706173 34.800014382742 38.300014382742 411 1 1 411 411
122	12795372 156704 8503 4636544 6.639961545431 56.226708456136 5184 0 100 209320 12468648
123	12952076 4903 159972 4548988 16.689690974214 55.761077171636 164 1 1 164 164
124	12956979 21080 219439 4584744 18.432382844352 55.959121478227 710 0 5 1683 5527
126	12978059 57599 557158 4588942 25.154297346445 55.991778428337 1904 0 85 31680 1288044
128	13035658 152091 71487 4636057 12.672621245476 56.218134928337 4978 0 100 365761 30172533
129	13187749 102527 179114 4550257 17.292372719113 55.765824928337 3422 1 1 3422 3422
130	13290276 21812 53741 4580182 11.408111189637 55.925772481303 736 0 5 1666 5412
132	13312088 3180 2166928 4560473 42.268639876834 55.862202178141 106 0 4 155 353
134	13315268 32387 1962727 4635412 40.5201773326 56.2086063326 1064 0 100 55656 4084420